<?xml version="1.0" encoding="UTF-8"?>

<!-- generated on 2026-04-21T13:30:03.248420+03:00 by Eclipse SUMO GUI 1.26.0
<sumoConfiguration xmlns:xsi="http://www.w3.org/2001/XMLSchema-instance" xsi:noNamespaceSchemaLocation="http://sumo.dlr.de/xsd/sumoConfiguration.xsd">

    <input>
        <net-file value="C:\Teknofest2242\2026-04-21-13-29-08\osm.net.xml.gz"/>
        <route-files value="C:\Teknofest2242\2026-04-21-13-29-08\osm.passenger.trips.xml"/>
        <additional-files value="C:\Teknofest2242\2026-04-21-13-29-08\osm.poly.xml.gz,C:\Teknofest2242\2026-04-21-13-29-08\output.add.xml"/>
    </input>

    <output>
        <tripinfo-output value="C:\Teknofest2242\2026-04-21-13-29-08\tripinfos.xml"/>
        <statistic-output value="C:\Teknofest2242\2026-04-21-13-29-08\stats.xml"/>
    </output>

    <processing>
        <ignore-route-errors value="true"/>
        <tls.actuated.jam-threshold value="30"/>
    </processing>

    <routing>
        <device.rerouting.adaptation-steps value="18"/>
        <device.rerouting.adaptation-interval value="10"/>
    </routing>

    <report>
        <verbose value="true"/>
        <duration-log.statistics value="true"/>
        <no-step-log value="true"/>
    </report>

    <gui_only>
        <gui-settings-file value="C:\Teknofest2242\2026-04-21-13-29-08\osm.view.xml"/>
    </gui_only>

</sumoConfiguration>
-->

<tripinfos xmlns:xsi="http://www.w3.org/2001/XMLSchema-instance" xsi:noNamespaceSchemaLocation="http://sumo.dlr.de/xsd/tripinfo_file.xsd">
</tripinfos>
